# vtk DataFile Version 2.0
VTK from Matlab
ASCII
DATASET STRUCTURED_GRID
DIMENSIONS 227 227 1
POINTS 51529 float
-8.04 0.00 -0.00 -8.04 1.00 -0.00 -8.04 2.00 -0.00 -8.04 3.00 -0.00 -8.04 4.00 -0.00 -8.04 5.00 -0.00 -8.04 6.00 -0.00 -8.04 7.00 -0.00 -8.04 8.00 -0.00 -8.04 9.00 -0.00 -8.04 10.00 -0.00 -8.04 11.00 -0.00 -8.04 12.00 -0.00 -8.04 13.00 -0.00 -8.04 14.00 -0.00 -8.04 15.00 -0.00 -8.04 16.00 -0.00 -8.04 17.00 -0.00 -8.04 18.00 -0.00 -8.04 19.00 -0.00 -8.04 20.00 -0.00 -8.04 21.00 -0.00 -8.04 22.00 -0.00 -8.04 23.00 -0.00 -8.04 24.00 -0.00 -8.04 25.00 -0.00 -8.04 26.00 -0.00 -8.04 27.00 -0.00 -8.04 28.00 -0.00 -8.04 29.00 -0.00 -8.04 30.00 -0.00 -8.04 31.00 -0.00 -8.04 32.00 -0.00 -8.04 33.00 -0.00 -8.04 34.00 -0.00 -8.04 35.00 -0.00 -8.04 36.00 -0.00 -8.04 37.00 -0.00 -8.04 38.00 -0.00 -8.04 39.00 -0.00 -8.04 40.00 -0.00 -8.04 41.00 -0.00 -8.04 42.00 -0.00 -8.04 43.00 -0.00 -8.04 44.00 -0.00 -8.04 45.00 -0.00 -8.04 46.00 -0.00 -8.04 47.00 -0.00 -8.04 48.00 -0.00 -8.04 49.00 -0.00 -8.04 50.00 -0.00 -8.04 51.00 -0.00 -8.04 52.00 -0.00 -8.04 53.00 -0.00 -8.04 54.00 -0.00 -8.04 55.00 -0.00 -8.04 56.00 -0.00 -8.04 57.00 -0.00 -8.04 58.00 -0.00 -8.04 59.00 -0.00 -8.04 60.00 -0.00 -8.04 61.00 -0.00 -8.04 62.00 -0.00 -8.04 63.00 -0.00 -8.04 64.00 -0.00 -8.04 65.00 -0.00 -8.04 66.00 -0.00 -8.04 67.00 -0.00 -8.04 68.00 -0.00 -8.04 69.00 -0.00 -8.04 70.00 -0.00 -8.04 71.00 -0.00 -8.04 72.00 -0.00 -8.04 73.00 -0.00 -8.04 74.00 -0.00 -8.04 75.00 -0.00 -8.04 76.00 -0.00 -8.04 77.00 -0.00 -8.04 78.00 -0.00 -8.04 79.00 -0.00 -8.04 80.00 -0.00 -8.04 81.00 -0.00 -8.04 82.00 -0.00 -8.04 83.00 -0.00 -8.04 84.00 -0.00 -8.04 85.00 -0.00 -8.04 86.00 -0.00 -8.04 87.00 -0.00 -8.04 88.00 -0.00 -8.04 89.00 -0.00 -8.04 90.00 -0.00 -8.04 91.00 -0.00 -8.04 92.00 -0.00 -8.04 93.00 -0.00 -8.04 94.00 -0.00 -8.04 95.00 -0.00 -8.04 96.00 -0.00 -8.04 97.00 -0.00 -8.04 98.00 -0.00 -8.04 99.00 -0.00 -8.04 100.00 -0.00 -8.04 101.00 -0.00 -8.04 102.00 -0.00 -8.04 103.00 -0.00 -8.04 104.00 -0.00 -8.04 105.00 -0.00 -8.04 106.00 -0.00 -8.04 107.00 -0.00 -8.04 108.00 -0.00 -8.04 109.00 -0.00 -8.04 110.00 -0.00 -8.04 111.00 -0.00 -8.04 112.00 -0.00 -8.04 113.00 -0.00 -8.04 114.00 -0.00 -8.04 115.00 -0.00 -8.04 116.00 -0.00 -8.04 117.00 -0.00 -8.04 118.00 -0.00 -8.04 119.00 -0.00 -8.04 120.00 -0.00 -8.04 121.00 -0.00 -8.04 122.00 -0.00 -8.04 123.00 -0.00 -8.04 124.00 -0.00 -8.04 125.00 -0.00 -8.04 126.00 -0.00 -8.04 127.00 -0.00 -8.04 128.00 -0.00 -8.04 129.00 -0.00 -8.04 130.00 -0.00 -8.04 131.00 -0.00 -8.04 132.00 -0.00 -8.04 133.00 -0.00 -8.04 134.00 -0.00 -8.04 135.00 -0.00 -8.04 136.00 -0.00 -8.04 137.00 -0.00 -8.04 138.00 -0.00 -8.04 139.00 -0.00 -8.04 140.00 -0.00 -8.04 141.00 -0.00 -8.04 142.00 -0.00 -8.04 143.00 -0.00 -8.04 144.00 -0.00 -8.04 145.00 -0.00 -8.04 146.00 -0.00 -8.04 147.00 -0.00 -8.04 148.00 -0.00 -8.04 149.00 -0.00 -8.04 150.00 -0.00 -8.04 151.00 -0.00 -8.04 152.00 -0.00 -8.04 153.00 -0.00 -8.04 154.00 -0.00 -8.04 155.00 -0.00 -8.04 156.00 -0.00 -8.04 157.00 -0.00 -8.04 158.00 -0.00 -8.04 159.00 -0.00 -8.04 160.00 -0.00 -8.04 161.00 -0.00 -8.04 162.00 -0.00 -8.04 163.00 -0.00 -8.04 164.00 -0.00 -8.04 165.00 -0.00 -8.04 166.00 -0.00 -8.04 167.00 -0.00 -8.04 168.00 -0.00 -8.04 169.00 -0.00 -8.04 170.00 -0.00 -8.04 171.00 -0.00 -8.04 172.00 -0.00 -8.04 173.00 -0.00 -8.04 174.00 -0.00 -8.04 175.00 -0.00 -8.04 176.00 -0.00 -8.04 177.00 -0.00 -8.04 178.00 -0.00 -8.04 179.00 -0.00 -8.04 180.00 -0.00 -8.04 181.00 -0.00 -8.04 182.00 -0.00 -8.04 183.00 -0.00 -8.04 184.00 -0.00 -8.04 185.00 -0.00 -8.04 186.00 -0.00 -8.04 187.00 -0.00 -8.04 188.00 -0.00 -8.04 189.00 -0.00 -8.04 190.00 -0.00 -8.04 191.00 -0.00 -8.04 192.00 -0.00 -8.04 193.00 -0.00 -8.04 194.00 -0.00 -8.04 195.00 -0.00 -8.04 196.00 -0.00 -8.04 197.00 -0.00 -8.04 198.00 -0.00 -8.04 199.00 -0.00 -8.04 200.00 -0.00 -8.04 201.00 -0.00 -8.04 202.00 -0.00 -8.04 203.00 -0.00 -8.04 204.00 -0.00 -8.04 205.00 -0.00 -8.04 206.00 -0.00 -8.04 207.00 -0.00 -8.04 208.00 -0.00 -8.04 209.00 -0.00 -8.04 210.00 -0.00 -8.04 211.00 -0.00 -8.04 212.00 -0.00 -8.04 213.00 -0.00 -8.04 214.00 -0.00 -8.04 215.00 -0.00 -8.04 216.00 -0.00 -8.04 217.00 -0.00 -8.04 218.00 -0.00 -8.04 219.00 -0.00 -8.04 220.00 -0.00 -8.04 221.00 -0.00 -8.04 222.00 -0.00 -8.04 223.00 -0.00 -8.04 224.00 -0.00 -8.04 225.00 -0.00 -8.04 226.00 -0.00 0.00 0.00 0.02 0.00 1.00 0.02 0.00 2.00 0.02 0.00 3.00 0.02 0.00 4.00 0.02 0.00 5.00 0.02 0.00 6.00 0.02 0.00 7.00 0.02 0.00 8.00 0.02 0.00 9.00 0.02 0.00 10.00 0.02 0.00 11.00 0.02 0.00 12.00 0.02 0.00 13.00 0.02 0.00 14.00 0.02 0.00 15.00 0.02 0.00 16.00 0.02 0.00 17.00 0.02 0.00 18.00 0.02 0.00 19.00 0.02 0.00 20.00 0.02 0.00 21.00 0.02 0.00 22.00 0.02 0.00 23.00 0.02 0.00 24.00 0.02 0.00 25.00 0.02 0.00 26.00 0.02 0.00 27.00 0.02 0.00 28.00 0.02 0.00 29.00 0.02 0.00 30.00 0.02 0.00 31.00 0.02 0.00 32.00 0.02 0.00 33.00 0.02 0.00 34.00 0.02 0.00 35.00 0.02 0.00 36.00 0.02 0.00 37.00 0.02 0.00 38.00 0.02 0.00 39.00 0.02 0.00 40.00 0.02 0.00 41.00 0.02 0.00 42.00 0.02 0.00 43.00 0.02 0.00 44.00 0.02 0.00 45.00 0.02 0.00 46.00 0.02 0.00 47.00 0.02 0.00 48.00 0.02 0.00 49.00 0.02 0.00 50.00 0.02 0.00 51.00 0.02 0.00 52.00 0.02 0.00 53.00 0.02 0.00 54.00 0.02 0.00 55.00 0.02 0.00 56.00 0.02 0.00 57.00 0.02 0.00 58.00 0.02 0.00 59.00 0.02 0.00 60.00 0.02 0.00 61.00 0.02 0.00 62.00 0.02 0.00 63.00 0.02 0.00 64.00 0.02 0.00 65.00 0.02 0.00 66.00 0.02 0.00 67.00 0.02 0.00 68.00 0.02 0.00 69.00 0.02 0.00 70.00 0.02 0.00 71.00 0.02 0.00 72.00 0.02 0.00 73.00 0.02 0.00 74.00 0.02 0.00 75.00 0.02 0.00 76.00 0.02 0.00 77.00 0.02 0.00 78.00 0.02 0.00 79.00 0.02 0.00 80.00 0.02 0.00 81.00 0.02 0.00 82.00 0.02 0.00 83.00 0.02 0.00 84.00 0.02 0.00 85.00 0.02 0.00 86.00 0.02 0.00 87.00 0.02 0.00 88.00 0.02 0.00 89.00 0.02 0.00 90.00 0.02 0.00 91.00 0.02 0.00 92.00 0.02 0.00 93.00 0.02 0.00 94.00 0.02 0.00 95.00 0.02 0.00 96.00 0.02 0.00 97.00 0.02 0.00 98.00 0.02 0.00 99.00 0.02 0.00 100.00 0.02 0.00 101.00 0.02 0.00 102.00 0.02 0.00 103.00 0.02 0.00 104.00 0.02 0.00 105.00 0.02 0.00 106.00 0.02 0.00 107.00 0.02 0.00 108.00 0.02 0.00 109.00 0.02 0.00 110.00 0.02 0.00 111.00 0.02 0.00 112.00 0.02 0.00 113.00 0.02 0.00 114.00 0.02 0.00 115.00 0.02 0.00 116.00 0.02 0.00 117.00 0.02 0.00 118.00 0.02 0.00 119.00 0.02 0.00 120.00 0.02 0.00 121.00 0.02 0.00 122.00 0.02 0.00 123.00 0.02 0.00 124.00 0.02 0.00 125.00 0.02 0.00 126.00 0.02 0.00 127.00 0.02 0.00 128.00 0.02 0.00 129.00 0.02 0.00 130.00 0.02 0.00 131.00 0.02 0.00 132.00 0.02 0.00 133.00 0.02 0.00 134.00 0.02 0.00 135.00 0.02 0.00 136.00 0.02 0.00 137.00 0.02 0.00 138.00 0.02 0.00 139.00 0.02 0.00 140.00 0.02 0.00 141.00 0.02 0.00 142.00 0.02 0.00 143.00 0.02 0.00 144.00 0.02 0.00 145.00 0.02 0.00 146.00 0.02 0.00 147.00 0.02 0.00 148.00 0.02 0.00 149.00 0.02 0.00 150.00 0.02 0.00 151.00 0.02 0.00 152.00 0.02 0.00 153.00 0.02 0.00 154.00 0.02 0.00 155.00 0.02 0.00 156.00 0.02 0.00 157.00 0.02 0.00 158.00 0.02 0.00 159.00 0.02 0.00 160.00 0.02 0.00 161.00 0.02 0.00 162.00 0.02 0.00 163.00 0.02 0.00 164.00 0.02 0.00 165.00 0.02 0.00 166.00 0.02 0.00 167.00 0.02 0.00 168.00 0.02 0.00 169.00 0.02 0.00 170.00 0.02 0.00 171.00 0.02 0.00 172.00 0.02 0.00 173.00 0.02 0.00 174.00 0.02 0.00 175.00 0.02 0.00 176.00 0.02 0.00 177.00 0.02 0.00 178.00 0.02 0.00 179.00 0.02 0.00 180.00 0.02 0.00 181.00 0.02 0.00 182.00 0.02 0.00 183.00 0.02 0.00 184.00 0.02 0.00 185.00 0.02 0.00 186.00 0.02 0.00 187.00 0.02 0.00 188.00 0.02 0.00 189.00 0.02 0.00 190.00 0.02 0.00 191.00 0.02 0.00 192.00 0.02 0.00 193.00 0.02 0.00 194.00 0.02 0.00 195.00 0.02 0.00 196.00 0.02 0.00 197.00 0.02 0.00 198.00 0.02 0.00 199.00 0.02 0.00 200.00 0.02 0.00 201.00 0.02 0.00 202.00 0.02 0.00 203.00 0.02 0.00 204.00 0.02 0.00 205.00 0.02 0.00 206.00 0.02 0.00 207.00 0.02 0.00 208.00 0.02 0.00 209.00 0.02 0.00 210.00 0.02 0.00 211.00 0.02 0.00 212.00 0.02 0.00 213.00 0.02 0.00 214.00 0.02 0.00 215.00 0.02 0.00 216.00 0.02 0.00 217.00 0.02 0.00 218.00 0.02 0.00 219.00 0.02 0.00 220.00 0.02 0.00 221.00 0.02 0.00 222.00 0.02 0.00 223.00 0.02 0.00 224.00 0.02 0.00 225.00 0.02 0.00 226.00 0.02 8.04 0.00 0.01 8.04 1.00 0.01 8.04 2.00 0.01 8.04 3.00 0.01 8.04 4.00 0.01 8.04 5.00 0.01 8.04 6.00 0.01 8.04 7.00 0.01 8.04 8.00 0.01 8.04 9.00 0.01 8.04 10.00 0.01 8.04 11.00 0.01 8.04 12.00 0.01 8.04 13.00 0.01 8.04 14.00 0.01 8.04 15.00 0.01 8.04 16.00 0.01 8.04 17.00 0.01 8.04 18.00 0.01 8.04 19.00 0.01 8.04 20.00 0.01 8.04 21.00 0.01 8.04 22.00 0.01 8.04 23.00 0.01 8.04 24.00 0.01 8.04 25.00 0.01 8.04 26.00 0.01 8.04 27.00 0.01 8.04 28.00 0.01 8.04 29.00 0.01 8.04 30.00 0.01 8.04 31.00 0.01 8.04 32.00 0.01 8.04 33.00 0.01 8.04 34.00 0.01 8.04 35.00 0.01 8.04 36.00 0.01 8.04 37.00 0.01 8.04 38.00 0.01 8.04 39.00 0.01 8.04 40.00 0.01 8.04 41.00 0.01 8.04 42.00 0.01 8.04 43.00 0.01 8.04 44.00 0.01 8.04 45.00 0.01 8.04 46.00 0.01 8.04 47.00 0.01 8.04 48.00 0.01 8.04 49.00 0.01 8.04 50.00 0.01 8.04 51.00 0.01 8.04 52.00 0.01 8.04 53.00 0.01 8.04 54.00 0.01 8.04 55.00 0.01 8.04 56.00 0.01 8.04 57.00 0.01 8.04 58.00 0.01 8.04 59.00 0.01 8.04 60.00 0.01 8.04 61.00 0.01 8.04 62.00 0.01 8.04 63.00 0.01 8.04 64.00 0.01 8.04 65.00 0.01 8.04 66.00 0.01 8.04 67.00 0.01 8.04 68.00 0.01 8.04 69.00 0.01 8.04 70.00 0.01 8.04 71.00 0.01 8.04 72.00 0.01 8.04 73.00 0.01 8.04 74.00 0.01 8.04 75.00 0.01 8.04 76.00 0.01 8.04 77.00 0.01 8.04 78.00 0.01 8.04 79.00 0.01 8.04 80.00 0.01 8.04 81.00 0.01 8.04 82.00 0.01 8.04 83.00 0.01 8.04 84.00 0.01 8.04 85.00 0.01 8.04 86.00 0.01 8.04 87.00 0.01 8.04 88.00 0.01 8.04 89.00 0.01 8.04 90.00 0.01 8.04 91.00 0.01 8.04 92.00 0.01 8.04 93.00 0.01 8.04 94.00 0.01 8.04 95.00 0.01 8.04 96.00 0.01 8.04 97.00 0.01 8.04 98.00 0.01 8.04 99.00 0.01 8.04 100.00 0.01 8.04 101.00 0.01 8.04 102.00 0.01 8.04 103.00 0.01 8.04 104.00 0.01 8.04 105.00 0.01 8.04 106.00 0.01 8.04 107.00 0.01 8.04 108.00 0.01 8.04 109.00 0.01 8.04 110.00 0.01 8.04 111.00 0.01 8.04 112.00 0.01 8.04 113.00 0.01 8.04 114.00 0.01 8.04 115.00 0.01 8.04 116.00 0.01 8.04 117.00 0.01 8.04 118.00 0.01 8.04 119.00 0.01 8.04 
[...]
POINT_DATA 51529
SCALARS random_vector float
LOOKUP_TABLE default
-58.09 -58.09 -58.09 -58.09 -58.09 -58.09 -58.09 -58.09 -58.09 -58.09 -58.09 -58.09 -58.09 -58.09 -58.09 -58.09 -58.09 -58.09 -58.09 -58.09 -58.09 -58.09 -58.09 -58.09 -58.09 -58.09 -58.09 -58.09 -58.09 -58.09 -58.09 -58.09 -58.09 -58.09 -58.09 -58.09 -58.09 -58.09 -58.09 -58.09 -58.09 -58.09 -58.09 -58.09 -58.09 -58.09 -58.09 -58.09 -58.09 -58.09 -58.09 -58.09 -58.09 -58.09 -58.09 -58.09 -58.09 -58.09 -58.09 -58.09 -58.09 -58.09 -58.09 -58.09 -58.09 -58.09 -58.09 -58.09 -58.09 -58.09 -58.09 -58.09 -58.09 -58.09 -58.09 -58.09 -58.09 -58.09 -58.09 -58.09 -58.09 -58.09 -58.09 -58.09 -58.09 -58.09 -58.09 -58.09 -58.09 -58.09 -58.09 -58.09 -58.09 -58.09 -58.09 -58.09 -58.09 -58.09 -58.09 -58.09 -58.09 -58.09 -58.09 -58.09 -58.09 -58.09 -58.09 -58.09 -58.09 -58.09 -58.09 -58.09 -58.09 -58.09 -58.09 -58.09 -58.09 -58.09 -58.09 -58.09 -58.09 -58.09 -58.09 -58.09 -58.09 -58.09 -58.09 -58.09 -58.09 -58.09 -58.09 -58.09 -58.09 -58.09 -58.09 -58.09 -58.09 -58.09 -58.09 -58.09 -58.09 -58.09 -58.09 -58.09 -58.09 -58.09 -58.09 -58.09 -58.09 -58.09 -58.09 -58.09 -58.09 -58.09 -58.09 -58.09 -58.09 -58.09 -58.09 -58.09 -58.09 -58.09 -58.09 -58.09 -58.09 -58.09 -58.09 -58.09 -58.09 -58.09 -58.09 -58.09 -58.09 -58.09 -58.09 -58.09 -58.09 -58.09 -58.09 -58.09 -58.09 -58.09 -58.09 -58.09 -58.09 -58.09 -58.09 -58.09 -58.09 -58.09 -58.09 -58.09 -58.09 -58.09 -58.09 -58.09 -58.09 -58.09 -58.09 -58.09 -58.09 -58.09 -58.09 -58.09 -58.09 -58.09 -58.09 -58.09 -58.09 -58.09 -58.09 -58.09 -58.09 -58.09 -58.09 -58.09 -58.09 -58.09 -58.09 -58.09 -58.09 -58.09 -58.09 -58.09 -58.09 -58.09 -58.09 -57.86 -57.86 -57.86 -57.86 -57.86 -57.86 -57.86 -57.86 -57.86 -57.86 -57.86 -57.86 -57.86 -57.86 -57.86 -57.86 -57.86 -57.86 -57.86 -57.86 -57.86 -57.86 -57.86 -57.86 -57.86 -57.86 -57.86 -57.86 -57.86 -57.86 -57.86 -57.86 -57.86 -57.86 -57.86 -57.86 -57.86 -57.86 -57.86 -57.86 -57.86 -57.86 -57.86 -57.86 -57.86 -57.86 -57.86 -57.86 -57.86 -57.86 -57.86 -57.86 -57.86 -57.86 -57.86 -57.86 -57.86 -57.86 -57.86 -57.86 -57.86 -57.86 -57.86 -57.86 -57.86 -57.86 -57.86 -57.86 -57.86 -57.86 -57.86 -57.86 -57.86 -57.86 -57.86 -57.86 -57.86 -57.86 -57.86 -57.86 -57.86 -57.86 -57.86 -57.86 -57.86 -57.86 -57.86 -57.86 -57.86 -57.86 -57.86 -57.86 -57.86 -57.86 -57.86 -57.86 -57.86 -57.86 -57.86 -57.86 -57.86 -57.86 -57.86 -57.86 -57.86 -57.86 -57.86 -57.86 -57.86 -57.86 -57.86 -57.86 -57.86 -57.86 -57.86 -57.86 -57.86 -57.86 -57.86 -57.86 -57.86 -57.86 -57.86 -57.86 -57.86 -57.86 -57.86 -57.86 -57.86 -57.86 -57.86 -57.86 -57.86 -57.86 -57.86 -57.86 -57.86 -57.86 -57.86 -57.86 -57.86 -57.86 -57.86 -57.86 -57.86 -57.86 -57.86 -57.86 -57.86 -57.86 -57.86 -57.86 -57.86 -57.86 -57.86 -57.86 -57.86 -57.86 -57.86 -57.86 -57.86 -57.86 -57.86 -57.86 -57.86 -57.86 -57.86 -57.86 -57.86 -57.86 -57.86 -57.86 -57.86 -57.86 -57.86 -57.86 -57.86 -57.86 -57.86 -57.86 -57.86 -57.86 -57.86 -57.86 -57.86 -57.86 -57.86 -57.86 -57.86 -57.86 -57.86 -57.86 -57.86 -57.86 -57.86 -57.86 -57.86 -57.86 -57.86 -57.86 -57.86 -57.86 -57.86 -57.86 -57.86 -57.86 -57.86 -57.86 -57.86 -57.86 -57.86 -57.86 -57.86 -57.86 -57.86 -57.86 -57.86 -57.86 -57.86 -57.86 -57.86 -57.86 -57.86 -57.86 -57.86 -57.86 -57.86 -57.91 -57.91 -57.91 -57.91 -57.91 -57.91 -57.91 -57.91 -57.91 -57.91 -57.91 -57.91 -57.91 -57.91 -57.91 -57.91 -57.91 -57.91 -57.91 -57.91 -57.91 -57.91 -57.91 -57.91 -57.91 -57.91 -57.91 -57.91 -57.91 -57.91 -57.91 -57.91 -57.91 -57.91 -57.91 -57.91 -57.91 -57.91 -57.91 -57.91 -57.91 -57.91 -57.91 -57.91 -57.91 -57.91 -57.91 -57.91 -57.91 -57.91 -57.91 -57.91 -57.91 -57.91 -57.91 -57.91 -57.91 -57.91 -57.91 -57.91 -57.91 -57.91 -57.91 -57.91 -57.91 -57.91 -57.91 -57.91 -57.91 -57.91 -57.91 -57.91 -57.91 -57.91 -57.91 -57.91 -57.91 -57.91 -57.91 -57.91 -57.91 -57.91 -57.91 -57.91 -57.91 -57.91 -57.91 -57.91 -57.91 -57.91 -57.91 -57.91 -57.91 -57.91 -57.91 -57.91 -57.91 -57.91 -57.91 -57.91 -57.91 -57.91 -57.91 -57.91 -57.91 -57.91 -57.91 -57.91 -57.91 -57.91 -57.91 -57.91 -57.91 -57.91 -57.91 -57.91 -57.91 -57.91 -57.91 -57.91 -57.91 -57.91 -57.91 -57.91 -57.91 -57.91 -57.91 -57.91 -57.91 -57.91 -57.91 -57.91 -57.91 -57.91 -57.91 -57.91 -57.91 -57.91 -57.91 -57.91 -57.91 -57.91 -57.91 -57.91 -57.91 -57.91 -57.91 -57.91 -57.91 -57.91 -57.91 -57.91 -57.91 -57.91 -57.91 -57.91 -57.91 -57.91 -57.91 -57.91 -57.91 -57.91 -57.91 -57.91 -57.91 -57.91 -57.91 -57.91 -57.91 -57.91 -57.91 -57.91 -57.91 -57.91 -57.91 -57.91 -57.91 -57.91 -57.91 -57.91 -57.91 -57.91 -57.91 -57.91 -57.91 -57.91 -57.91 -57.91 -57.91 -57.91 -57.91 -57.91 -57.91 -57.91 -57.91 -57.91 -57.91 -57.91 -57.91 -57.91 -57.91 -57.91 -57.91 -57.91 -57.91 -57.91 -57.91 -57.91 -57.91 -57.91 -57.91 -57.91 -57.91 -57.91 -57.91 -57.91 -57.91 -57.91 -57.91 -57.91 -57.91 -57.91 -57.91 -57.91 -57.91 -57.91 -57.91 -57.96 -57.96 -57.96 -57.96 -57.96 -57.96 -57.96 -57.96 -57.96 -57.96 -57.96 -57.96 -57.96 -57.96 -57.96 -57.96 -57.96 -57.96 -57.96 -57.96 -57.96 -57.96 -57.96 -57.96 -57.96 -57.96 -57.96 -57.96 -57.96 -57.96 -57.96 -57.96 -57.96 -57.96 -57.96 -57.96 -57.96 -57.96 -57.96 -57.96 -57.96 -57.96 -57.96 -57.96 -57.96 -57.96 -57.96 -57.96 -57.96 -57.96 -57.96 -57.96 -57.96 -57.96 -57.96 -57.96 -57.96 -57.96 -57.96 -57.96 -57.96 -57.96 -57.96 -57.96 -57.96 -57.96 -57.96 -57.96 -57.96 -57.96 -57.96 -57.96 -57.96 -57.96 -57.96 -57.96 -57.96 -57.96 -57.96 -57.96 -57.96 -57.96 -57.96 -57.96 -57.96 -57.96 -57.96 -57.96 -57.96 -57.96 -57.96 -57.96 -57.96 -57.96 -57.96 -57.96 -57.96 -57.96 -57.96 -57.96 -57.96 -57.96 -57.96 -57.96 -57.96 -57.96 -57.96 -57.96 -57.96 -57.96 -57.96 -57.96 -57.96 -57.96 -57.96 -57.96 -57.96 -57.96 -57.96 -57.96 -57.96 -57.96 -57.96 -57.96 -57.96 -57.96 -57.96 -57.96 -57.96 -57.96 -57.96 -57.96 -57.96 -57.96 -57.96 -57.96 -57.96 -57.96 -57.96 -57.96 -57.96 -57.96 -57.96 -57.96 -57.96 -57.96 -57.96 -57.96 -57.96 -57.96 -57.96 -57.96 -57.96 -57.96 -57.96 -57.96 -57.96 -57.96 -57.96 -57.96 -57.96 -57.96 -57.96 -57.96 -57.96 -57.96 -57.96 -57.96 -57.96 -57.96 -57.96 -57.96 -57.96 -57.96 -57.96 -57.96 -57.96 -57.96 -57.96 -57.96 -57.96 -57.96 -57.96 -57.96 -57.96 -57.96 -57.96 -57.96 -57.96 -57.96 -57.96 -57.96 -57.96 -57.96 -57.96 -57.96 -57.96 -57.96 -57.96 -57.96 -57.96 -57.96 -57.96 -57.96 -57.96 -57.96 -57.96 -57.96 -57.96 -57.96 -57.96 -57.96 -57.96 -57.96 -57.96 -57.96 -57.96 -57.96 -57.96 -57.96 -57.96 -57.96 -57.96 -57.96 -57.96 -57.96 -57.96 -58.01 -58.01 -58.01 -58.01 -58.01 -58.01 -58.01 -58.01 -58.01 -58.01 -58.01 -58.01 -58.01 -58.01 -58.01 -58.01 -58.01 -58.01 -58.01 -58.01 -58.01 -58.01 -58.01 -58.01 -58.01 -58.01 -58.01 -58.01 -58.01 -58.01 -58.01 -58.01 -58.01 -58.01 -58.01 -58.01 -58.01 -58.01 -58.01 -58.01 -58.01 -58.01 -58.01 -58.01 -58.01 -58.01 -58.01 -58.01 -58.01 -58.01 -58.01 -58.01 -58.01 -58.01 -58.01 -58.01 -58.01 -58.01 -58.01 -58.01 -58.01 -58.01 -58.01 -58.01 -58.01 -58.01 -58.01 -58.01 -58.01 -58.01 -58.01 -58.01 -58.01 -58.01 -58.01 -58.01 -58.01 -58.01 -58.01 -58.01 -58.01 -58.01 -58.01 -58.01 -58.01 -58.01 -58.01 -58.01 -58.01 -58.01 -58.01 -58.01 -58.01 -58.01 -58.01 -58.01 -58.01 -58.01 -58.01 -58.01 -58.01 -58.01 -58.01 -58.01 -58.01 -58.01 -58.01 -58.01 -58.01 -58.01 -58.01 -58.01 -58.01 -58.01 -58.01 -58.01 -58.01 -58.01 -58.01 -58.01 -58.01 -58.01 -58.01 -58.01 -58.01 -58.01 -58.01 -58.01 -58.01 -58.01 -58.01 -58.01 -58.01 -58.01 -58.01 -58.01 -58.01 -58.01 -58.01 -58.01 -58.01 -58.01 -58.01 -58.01 -58.01 -58.01 -58.01 -58.01 -58.01 -58.01 -58.01 -58.01 -58.01 -58.01 -58.01 -58.01 -58.01 -58.01 -58.01 -58.01 -58.01 -58.01 -58.01 -58.01 -58.01 -58.01 -58.01 -58.01 -58.01 -58.01 -58.01 -58.01 -58.01 -58.01 -58.01 -58.01 -58.01 -58.01 -58.01 -58.01 -58.01 -58.01 -58.01 -58.01 -58.01 -58.01 -58.01 -58.01 -58.01 -58.01 -58.01 -58.01 -58.01 -58.01 -58.01 -58.01 -58.01 -58.01 -58.01 -58.01 -58.01 -58.01 -58.01 -58.01 -58.01 -58.01 -58.01 -58.01 -58.01 -58.01 -58.01 -58.01 -58.01 -58.01 -58.01 -58.01 -58.01 -58.01 -58.01 -58.01 -58.01 -58.01 -58.01 -58.01 -58.01 -58.01 -58.01 -58.06 -58.06 -58.06 -58.06 -58.06 -58.06 -58.06 -58.06 -58.06 -58.06 -58.06 -58.06 -58.06 -58.06 -58.06 -58.06 -58.06 -58.06 -58.06 -58.06 -58.06 -58.06 -58.06 -58.06 -58.06 -58.06 -58.06 -58.06 -58.06 -58.06 -58.06 -58.06 -58.06 -58.06 -58.06 -58.06 -58.06 -58.06 -58.06 -58.06 -58.06 -58.06 -58.06 -58.06 -58.06 -58.06 -58.06 -58.06 -58.06 -58.06 -58.06 -58.06 -58.06 -58.06 -58.06 -58.06 -58.06 -58.06 -58.06 -58.06 -58.06 -58.06 -58.06 -58.06 -58.06 -58.06 -58.06 -58.06 -58.06 -58.06 -58.06 -58.06 -58.06 -58.06 -58.06 -58.06 -58.06 -58.06 -58.06 -58.06 -58.06 -58.06 -58.06 -58.06 -58.06 -58.06 -58.06 -58.06 -58.06 -58.06 -58.06 -58.06 -58.06 -58.06 -58.06 -58.06 -58.06 -58.06 -58.06 -58.06 -58.06 -58.06 -58.06 -58.06 -58.06 -58.06 -58.06 -58.06 -58.06 -58.06 -58.06 -58.06 -58.06 -58.06 -58.06 -58.06 -58.06 -58.06 -58.06 -58.06 -58.06 -58.06 -58.06 -58.06 -58.06 -58.06 -58.06 -58.06 -58.06 -58.06 -58.06 -58.06 -58.06 -58.06 -58.06 -58.06 -58.06 -58.06 -58.06 -58.06 -58.06 -58.06 -58.06 -58.06 -58.06 -58.06 -58.06 -58.06 -58.06 -58.06 -58.06 -58.06 -58.06 -58.06 -58.06 -58.06 -58.06 -58.06 -58.06 -58.06 -58.06 -58.06 -58.06 -58.06 -58.06 -58.06 -58.06 -58.06 -58.06 -58.06 -58.06 -58.06 -58.06 -58.06 -58.06 -58.06 -58.06 -58.06 -58.06 -58.06 -58.06 -58.06 -58.06 -58.06 -58.06 -58.06 -58.06 -58.06 -58.06 -58.06 -58.06 -58.06 -58.06 -58.06 -58.06 -58.06 -58.06 -58.06 -58.06 -58.06 -58.06 -58.06 -58.06 -58.06 -58.06 -58.06 -58.06 -58.06 -58.06 -58.06 -58.06 -58.06 -58.06 -58.06 -58.06 -58.06 -58.06 -58.06 -58.06 -58.06 -58.06 -58.06 -58.06 -58.06 -58.06 -58.06 -58.06 -58.12 -58.12 -58.12 -58.12 -58.12 -58.12 -58.12 -58.12 -58.12 -58.12 -58.12 -58.12 -58.12 -58.12 -58.12 -58.12 -58.12 -58.12 -58.12 -58.12 -58.12 -58.12 -58.12 -58.12 -58.12 -58.12 -58.12 -58.12 -58.12 -58.12 -58.12 -58.12 -58.12 -58.12 -58.12 -58.12 -58.12 -58.12 -58.12 -58.12 -58.12 -58.12 -58.12 -58.12 -58.12 -58.12 -58.12 -58.12 -58.12 -58.12 -58.12 -58.12 -58.12 -58.12 -58.12 -58.12 -58.12 -58.12 -58.12 -58.12 -58.12 -58.12 -58.12 -58.12 -58.12 -58.12 -58.12 -58.12 -58.12 -58.12 -58.12 -58.12 -58.12 -58.12 -58.12 -58.12 -58.12 -58.12 -58.12 -58.12 -58.12 -58.12 -58.12 -58.12 -58.12 -58.12 -58.12 -58.12 -58.12 -58.12 -58.12 -58.12 -58.12 -58.12 -58.12 -58.12 -58.12 -58.12 -58.12 -58.12 -58.12 -58.12 -58.12 -58.12 -58.12 -58.12 -58.12 -58.12 -58.12 -58.12 -58.12 -58.12 -58.12 -58.12 -58.12 -58.12 -58.12 -58.12 -58.12 -58.12 -58.12 -58.12 -58.12 -58.12 -58.12 -58.12 -58.12 -58.12 -58.12 -58.12 -58.12 -58.12 -58.12 -58.12 -58.12 -58.12 -58.12 -58.12 -58.12 -58.12 -58.12 -58.12 -58.12 -58.12 -58.12 -58.12 -58.12 -58.12 -58.12 -58.12 -58.12 -58.12 -58.12 -58.12 -58.12 -58.12 -58.12 -58.12 -58.12 -58.12 -58.12 -58.12 -58.12 -58.12 -58.12 -58.12 -58.12 -58.12 -58.12 -58.12 -58.12 -58.12 -58.12 -58.12 -58.12 -58.12 -58.12 -58.12 -58.12 -58.12 -58.12 -58.12 -58.12 -58.12 -58.12 -58.12 -58.12 -58.12 -58.12 -58.12 -58.12 -58.12 -58.12 -58.12 -58.12 -58.12 -58.12 -58.12 -58.12 -58.12 -58.12 -58.12 -58.12 -58.12 -58.12 -58.12 -58.12 -58.12 -58.12 -58.12 -58.12 -58.12 -58.12 -58.12 -58.12 -58.12 -58.12 -58.12 -58.12 -58.12 -58.12 -58.12 -58.12 -58.12 -58.12 -58.12 -58.12 -58.17 -58.17 -58.17 -58.17 -58.17 -58.17 -58.17 -58.17 -58.17 -58.17 -58.17 -58.17 -58.17 -58.17 -58.17 -58.17 -58.17 -58.17 -58.17 -58.17 -58.17 -58.17 -58.17 -58.17 -58.17 -58.17 -58.17 -58.17 -58.17 -58.17 -58.17 -58.17 -58.17 -58.17 -58.17 -58.17 -58.17 -58.17 -58.17 -58.17 -58.17 -58.17 -58.17 -58.17 -58.17 -58.17 -58.17 -58.17 -58.17 -58.17 -58.17 -58.17 -58.17 -58.17 -58.17 -58.17 -58.17 -58.17 -58.17 -58.17 -58.17 -58.17 -58.17 -58.17 -58.17 -58.17 -58.17 -58.17 -58.17 -58.17 -58.17 -58.17 -58.17 -58.17 -58.17 -58.17 -58.17 -58.17 -58.17 -58.17 -58.17 -58.17 -58.17 -58.17 -58.17 -58.17 -58.17 -58.17 -58.17 -58.17 -58.17 -58.17 -58.17 -58.17 -58.17 -58.17 -58.17 -58.17 -58.17 -58.17 -58.17 -58.17 -58.17 -58.17 -58.17 -58.17 -58.17 -58.17 -58.17 -58.17 -58.17 -58.17 -58.17 -58.17 -58.17 -58.17 -58.17 -58.17 -58.17 -58.17 -58.17 -58.17 -58.17 -58.17 -58.17 -58.17 -58.17 -58.17 -58.17 -58.17 -58.17 -58.17 -58.17 -58.17 -58.17 -58.17 -58.17 -58.17 -58.17 -58.17 -58.17 -58.17 -58.17 -58.17 -58.17 -58.17 -58.17 -58.17 -58.17 -58.17 -58.17 -58.17 -58.17 -58.17 -58.17 -58.17 -58.17 -58.17 -58.17 -58.17 -58.17 -58.17 -58.17 -58.17 -58.17 -58.17 -58.17 -58.17 -58.17 -58.17 -58.17 -58.17 -58.17 -58.17 -58.17 -58.17 -58.17 -58.17 -58.17 -58.17 -58.17 -58.17 -58.17 -58.17 -58.17 -58.17 -58.17 -58.17 -58.17 -58.17 -58.17 -58.17 -58.17 -58.17 -58.17 -58.17 -58.17 -58.17 -58.17 -58.17 -58.17 -58.17 -58.17 -58.17 -58.17 -58.17 -58.17 -58.17 -58.17 -58.17 -58.17 -58.17 -58.17 -58.17 -58.17 -58.17 -58.17 -58.17 -58.17 -58.17 -58.17 -58.17 -58.17 -58.17 -58.17 -58.17 -58.17 -58.21 -58.21 -58.21 -58.21 -58.21 -58.21 -58.21 -58.21 -58.21 -58.21 -58.21 -58.21 -58.21 -58.21 -58.21 -58.21 -58.21 -58.21 -58.21 -58.21 -58.21 -58.21 -58.21 -58.21 -58.21 -58.21 -58.21 -58.21 -58.21 -58.21 -58.21 -58.21 -58.21 -58.21 -58.21 -58.21 -58.21 -58.21 -58.21 -58.21 -58.21 -58.21 -58.21 -58.21 -58.21 -58.21 -58.21 -58.21 -58.21 -58.21 -58.21 -58.21 -58.21 -58.21 -58.21 -58.21 -58.21 -58.21 -58.21 -58.21 -58.21 -58.21 -58.21 -58.21 -58.21 -58.21 -58.21 -58.21 -58.21 -58.21 -58.21 -58.21 -58.21 -58.21 -58.21 -58.21 -58.21 -58.21 -58.21 -58.21 -58.21 -58.21 -58.21 -58.21 -58.21 -58.21 -58.21 -58.21 -58.21 -58.21 -58.21 -58.21 -58.21 -58.21 -58.21 -58.21 -58.21 -58.21 -58.21 -58.21 -58.21 -58.21 -58.21 -58.21 -58.21 -58.21 -58.21 -58.21 -58.21 -58.21 -58.21 -58.21 -58.21 -58.21 -58.21 -58.21 -58.21 -58.21 -58.21 -58.21 -58.21 -58.21 -58.21 -58.21 -58.21 -58.21 -58.21 -58.21 -58.21 -58.21 -58.21 -58.21 -58.21 -58.21 -58.21 -58.21 -58.21 -58.21 -58.21 -58.21 -58.21 -58.21 -58.21 -58.21 -58.21 -58.21 -58.21 -58.21 -58.21 -58.21 -58.21 -58.21 -58.21 -58.21 -58.21 -58.21 -58.21 -58.21 -58.21 -58.21 -58.21 -58.21 -58.21 -58.21 -58.21 -58.21 -58.21 -58.21 -58.21 -58.21 -58.21 -58.21 -58.21 -58.21 -58.21 -58.21 -58.21 -58.21 -58.21 -58.21 -58.21 -58.21 -58.21 -58.21 -58.21 -58.21 -58.21 -58.21 -58.21 -58.21 -58.21 -58.21 -58.21 -58.21 -58.21 -58.21 -58.21 -58.21 -58.21 -58.21 -58.21 -58.21 -58.21 -58.21 -58.21 -58.21 -58.21 -58.21 -58.21 -58.21 -58.21 -58.21 -58.21 -58.21 -58.21 -58.21 -58.21 -58.21 -58.21 -58.21 -58.21 -58.21 -58.21 -58.21 -58.21 -58.21 -58.21 -58.26 -58.26 -58.26 -58.26 -58.26 -58.26 -58.26 -58.26 -58.26 -58.26 -58.26 -58.26 -58.26 -58.26 -58.26 -58.26 -58.26 -58.26 -58.26 -58.26 -58.26 -58.26 -58.26 -58.26 -58.26 -58.26 -58.26 -58.26 -58.26 -58.26 -58.26 -58.26 -58.26 -58.26 -58.26 -58.26 -58.26 -58.26 -58.26 -58.26 -58.26 -58.26 -58.26 -58.26 -58.26 -58.26 -58.26 -58.26 -58.26 -58.26 -58.26 -58.26 -58.26 -58.26 -58.26 -58.26 -58.26 -58.26 -58.26 -58.26 -58.26 -58.26 -58.26 -58.26 -58.26 -58.26 -58.26 -58.26 -58.26 -58.26 -58.26 -58.26 -58.26 -58.26 -58.26 -58.26 -58.26 -58.26 -58.26 -58.26 -58.26 -58.26 -58.26 -58.26 -58.26 -58.26 -58.26 -58.26 -58.26 -58.26 -58.26 -58.26 -58.26 -58.26 -58.26 -58.26 -58.26 -58.26 -58.26 -58.26 -58.26 -58.26 -58.26 -58.26 -58.26 -58.26 -58.26 -58.26 -58.26 -58.26 -58.26 -58.26 -58.26 -58.26 -58.26 -58.26 -58.26 -58.26 -58.26 -58.26 -58.26 -58.26 -58.26 -58.26 -58.26 -58.26 -58.26 -58.26 -58.26 -58.26 -58.26 -58.26 -58.26 -58.26 -58.26 -58.26 -58.26 -58.26 -58.26 -58.26 -58.26 -58.26 -58.26 -58.26 -58.26 -58.26 -58.26 -58.26 -58.26 -58.26 -58.26 -58.26 -58.26 -58.26 -58.26 -58.26 -58.26 -58.26 -58.26 -58.26 -58.26 -58.26 -58.26 -58.26 -58.26 -58.26 -58.26 -58.26 -58.26 -58.26 -58.26 -58.26 -58.26 -58.26 -58.26 -58.26 -58.26 -58.26 -58.26 -58.26 -58.26 -58.26 -58.26 -58.26 -58.26 -58.26 -58.26 -58.26 -58.26 -58.26 -58.26 -58.26 -58.26 -58.26 -58.26 -58.26 -58.26 -58.26 -58.26 -58.26 -58.26 -58.26 -58.26 -58.26 -58.26 -58.26 -58.26 -58.26 -58.26 -58.26 -58.26 -58.26 -58.26 -58.26 -58.26 -58.26 -58.26 -58.26 -58.26 -58.26 -58.26 -58.26 -58.26 -58.26 -58.26 -58.26 -58.26 -58.30 -58.30 -58.30 -58.30 -58.30 -58.30 -58.30 -58.30 -58.30 -58.30 -58.30 -58.30 -58.30 -58.30 -58.30 -58.30 -58.30 -58.30 -58.30 -58.30 -58.30 -58.30 -58.30 -58.30 -58.30 -58.30 -58.30 -58.30 -58.30 -58.30 -58.30 -58.30 -58.30 -58.30 -58.30 -58.30 -58.30 -58.30 -58.30 -58.30 -58.30 -58.30 -58.30 -58.30 -58.30 -58.30 -58.30 -58.30 -58.30 -58.30 -58.30 -58.30 -58.30 -58.30 -58.30 -58.30 -58.30 -58.30 -58.30 -58.30 -58.30 -58.30 -58.30 -58.30 -58.30 -58.30 -58.30 -58.30 -58.30 -58.30 -58.30 -58.30 -58.30 -58.30 -58.30 -58.30 -58.30 -58.30 -58.30 -58.30 -58.30 -58.30 -58.30 -58.30 -58.30 -58.30 -58.30 -58.30 -58.30 -58.30 -58.30 -58.30 -58.30 -58.30 -58.30 -58.30 -58.30 -58.30 -58.30 -58.30 -58.30 -58.30 -58.30 -58.30 -58.30 -58.30 -58.30 -58.30 -58.30 -58.30 -58.30 -58.30 -58.30 -58.30 -58.30 -58.30 -58.30 -58.30 -58.30 -58.30 -58.30 -58.30 -58.30 -58.30 -58.30 -58.30 -58.30 -58.30 -58.30 -58.30 -58.30 -58.30 -58.30 -58.30 -58.30 -58.30 -58.30 -58.30 -58.30 -58.30 -58.30 -58.30 -58.30 -58.30 -58.30 -58.30 -58.30 -58.30 -58.30 -58.30 -58.30 -58.30 -58.30 -58.30 -58.30 -58.30 -58.30 -58.30 -58.30 -58.30 -58.30 -58.30 -58.30 -58.30 -58.30 -58.30 -58.30 -58.30 -58.30 -58.30 -58.30 -58.30 -58.30 -58.30 -58.30 -58.30 -58.30 -58.30 -58.30 -58.30 -58.30 -58.30 -58.30 -58.30 -58.30 -58.30 -58.30 -58.30 -58.30 -58.30 -58.30 -58.30 -58.30 -58.30 -58.30 -58.30 -58.30 -58.30 -58.30 -58.30 -58.30 -58.30 -58.30 -58.30 -58.30 -58.30 -58.30 -58.30 -58.30 -58.30 -58.30 -58.30 -58.30 -58.30 -58.30 -58.30 -58.30 -58.30 -58.30 -58.30 -58.30 -58.30 -58.30 -58.30 -58.30 -58.30 -58.30 -58.33 -58.33 -58.33 -58.33 -58.33 -58.33 -58.33 -58.33 -58.33 -58.33 -58.33 -58.33 -58.33 -58.33 -58.33 -58.33 -58.33 -58.33 -58.33 -58.33 -58.33 -58.33 -58.33 -58.33 -58.33 -58.33 -58.33 -58.33 -58.33 -58.33 -58.33 -58.33 -58.33 -58.33 -58.33 -58.33 -58.33 -58.33 -58.33 -58.33 -58.33 -58.33 -58.33 -58.33 -58.33 -58.33 -58.33 -58.33 -58.33 -58.33 -58.33 -58.33 -58.33 -58.33 -58.33 -58.33 -58.33 -58.33 -58.33 -58.33 -58.33 -58.33 -58.33 -58.33 -58.33 -58.33 -58.33 -58.33 -58.33 -58.33 -58.33 -58.33 -58.33 -58.33 -58.33 -58.33 -58.33 -58.33 -58.33 -58.33 -58.33 -58.33 -58.33 -58.33 -58.33 -58.33 -58.33 -58.33 -58.33 -58.33 -58.33 -58.33 -58.33 -58.33 -58.33 -58.33 -58.33 -58.33 -58.33 -58.33 -58.33 -58.33 -58.33 -58.33 -58.33 -58.33 -58.33 -58.33 -58.33 -58.33 -58.33 -58.33 -58.33 -58.33 -58.33 -58.33 -58.33 -58.33 -58.33 -58.33 -58.33 -58.33 -58.33 -58.33 -58.33 -58.33 -58.33 -58.33 -58.33 -58.33 -58.33 -58.33 -58.33 -58.33 -58.33 -58.33 -58.33 -58.33 -58.33 -58.33 -58.33 -58.33 -58.33 -58.33 -58.33 -58.33 -58.33 -58.33 -58.33 -58.33 -58.33 -58.33 -58.33 -58.33 -58.33 -58.33 -58.33 -58.33 -58.33 -58.33 -58.33 -58.33 -58.33 -58.33 -58.33 -58.33 -58.33 -58.33 -58.33 -58.33 -58.33 -58.33 -58.33 -58.33 -58.33 -58.33 -58.33 -58.33 -58.33 -58.33 -58.33 -58.33 -58.33 -58.33 -58.33 -58.33 -58.33 -58.33 -58.33 -58.33 -58.33 -58.33 -58.33 -58.33 -58.33 -58.33 -58.33 -58.33 -58.33 -58.33 -58.33 -58.33 -58.33 -58.33 -58.33 -58.33 -58.33 -58.33 -58.33 -58.33 -58.33 -58.33 -58.33 -58.33 -58.33 -58.33 -58.33 -58.33 -58.33 -58.33 -58.33 -58.33 -58.33 -58.33 -58.33 -58.33 -58.33 -58.36 -58.36 -58.36 -58.36 -58.36 -58.36 -58.36 -58.36 -58.36 -58.36 -58.36 -58.36 -58.36 -58.36 -58.36 -58.36 -58.36 -58.36 -58.36 -58.36 -58.36 -58.36 -58.36 -58.36 -58.36 -58.36 -58.36 -58.36 -58.36 -58.36 -58.36 -58.36 -58.36 -58.36 -58.36 -58.36 -58.36 -58.36 -58.36 -58.36 -58.36 -58.36 -58.36 -58.36 -58.36 -58.36 -58.36 -58.36 -58.36 -58.36 -58.36 -58.36 -58.36 -58.36 -58.36 -58.36 -58.36 -58.36 -58.36 -58.36 -58.36 -58.36 -58.36 -58.36 -58.36 -58.36 -58.36 -58.36 -58.36 -58.36 -58.36 -58.36 -58.36 -58.36 -58.36 -58.36 -58.36 -58.36 -58.36 -58.36 -58.36 -58.36 -58.36 -58.36 -58.36 -58.36 -58.36 -58.36 -58.36 -58.36 -58.36 -58.36 -58.36 -58.36 -58.36 -58.36 -58.36 -58.36 -58.36 -58.36 -58.36 -58.36 -58.36 -58.36 -58.36 -58.36 -58.36 -58.36 -58.36 -58.36 -58.36 -58.36 -58.36 -58.36 -58.36 -58.36 -58.36 -58.36 -58.36 -58.36 -58.36 -58.36 -58.36 -58.3